% Model:              frequency_response_and_eigenfrequencies_rayleigh_damping.mph
% Version:            COMSOL 5.2.0.220
% Date:               Dec 25 2018, 01:13
% Dimension:          1
% Nodes:              2001
% Expressions:        1
% Description:        Point graph
% x                       Height
0                         6.223181556966379E-5
1                         6.097209099443871E-5
2                         5.772682911410464E-5
3                         5.360523487521979E-5
4                         4.952449374533075E-5
5                         4.5948282177088066E-5
6                         4.300223717608463E-5
7                         4.0641171318595696E-5
8                         3.875462867947987E-5
9                         3.7217568221098754E-5
10                        3.591168912461269E-5
11                        3.473423251480798E-5
12                        3.360240068097501E-5
13                        3.245640484065274E-5
14                        3.1261423935478516E-5
15                        3.0007539888384113E-5
16                        2.870670181125424E-5
17                        2.7386658562077235E-5
18                        2.6082950085838174E-5
19                        2.4830731078115185E-5
20                        2.3658085030807302E-5
21                        2.2581811481470852E-5
22                        2.1605920442525235E-5
23                        2.0722562082888316E-5
24                        1.991487252199269E-5
25                        1.9161085380243367E-5
26                        1.8439133652869693E-5
27                        1.773086302468482E-5
28                        1.702501137373188E-5
29                        1.631838711503584E-5
30                        1.5615175241704535E-5
31                        1.4924821301030055E-5
32                        1.4259250044983584E-5
33                        1.3630160759060386E-5
34                        1.3046896874990648E-5
35                        1.2515099952082001E-5
36                        1.2036160565989788E-5
37                        1.1607390241379551E-5
38                        1.122280372226474E-5
39                        1.0874360039856354E-5
40                        1.0553444403578121E-5
41                        1.0252307290560928E-5
42                        9.9651627169022E-6
43                        9.688723488705455E-6
44                        9.422111559031687E-6
45                        9.166268470318849E-6
46                        8.923123687892066E-6
47                        8.69480319637001E-6
48                        8.483079610556721E-6
49                        8.289129393678382E-6
50                        8.113538738028355E-6
51                        7.956435259262873E-6
52                        7.81763005578301E-6
53                        7.696710682730791E-6
54                        7.59308808766303E-6
55                        7.506033320748869E-6
56                        7.434731690594548E-6
57                        7.3783488827458415E-6
58                        7.3360738698855195E-6
59                        7.307098716160956E-6
60                        7.290518380828682E-6
61                        7.28516993525627E-6
62                        7.289460049594573E-6
63                        7.3012387902464866E-6
64                        7.317765747839914E-6
65                        7.335789760915606E-6
66                        7.3517366527944625E-6
67                        7.361977728755276E-6
68                        7.363138079859343E-6
69                        7.35239828718131E-6
70                        7.327745673764675E-6
71                        7.288141271307683E-6
72                        7.233584305358012E-6
73                        7.165073493681183E-6
74                        7.084479247874528E-6
75                        6.994349806856273E-6
76                        6.897677066228448E-6
77                        6.79764640967459E-6
78                        6.697391719003252E-6
79                        6.599773428549384E-6
80                        6.507194165962652E-6
81                        6.421462774550844E-6
82                        6.343713147354523E-6
83                        6.274379603906632E-6
84                        6.213226067025906E-6
85                        6.159422521303425E-6
86                        6.111659385521021E-6
87                        6.0682884734293695E-6
88                        6.027478018558074E-6
89                        5.98736872247045E-6
90                        5.946218032024217E-6
91                        5.902521096541837E-6
92                        5.855099331823485E-6
93                        5.80315124350497E-6
94                        5.746264762731444E-6
95                        5.684395047262101E-6
96                        5.617815537594665E-6
97                        5.547052214206633E-6
98                        5.4728111282638695E-6
99                        5.395907611788489E-6
100                       5.317202821906163E-6
101                       5.237550340790949E-6
102                       5.157753199387028E-6
103                       5.078530339233719E-6
104                       5.000491184243414E-6
105                       4.924117370083799E-6
106                       4.849751343693986E-6
107                       4.777592107326619E-6
108                       4.7076985919939876E-6
109                       4.640000931476521E-6
110                       4.574319343748811E-6
111                       4.510389570561625E-6
112                       4.447893067215016E-6
113                       4.386489536500433E-6
114                       4.325849086751891E-6
115                       4.265681320114553E-6
116                       4.205759021633957E-6
117                       4.145934760638756E-6
118                       4.0861495300844505E-6
119                       4.026433409917468E-6
120                       3.966899022520645E-6
121                       3.9077291516990125E-6
122                       3.849160263131314E-6
123                       3.7914637811600577E-6
124                       3.7349268759150478E-6
125                       3.6798342528833987E-6
126                       3.626452083949861E-6
127                       3.5750148400137458E-6
128                       3.52571542974462E-6
129                       3.4786987489298215E-6
130                       3.4340585128264917E-6
131                       3.3918370789742445E-6
132                       3.3520278605815505E-6
133                       3.314579868477667E-6
134                       3.2794038895995023E-6
135                       3.246379802746103E-6
136                       3.215364541899686E-6
137                       3.1862002402071556E-6
138                       3.1587221242786223E-6
139                       3.1327657777179982E-6
140                       3.10817345662605E-6
141                       3.0847992160287036E-6
142                       3.06251269221412E-6
143                       3.041201477933844E-6
144                       3.020772117912074E-6
145                       3.001149836018877E-6
146                       2.98227717518509E-6
147                       2.9641117825042174E-6
148                       2.9466236016378135E-6
149                       2.929791741845542E-6
150                       2.91360127980965E-6
151                       2.8980402197128917E-6
152                       2.8830967943069347E-6
153                       2.868757239683895E-6
154                       2.8550041245641853E-6
155                       2.8418152654757698E-6
156                       2.8291632156998818E-6
157                       2.8170152804076895E-6
158                       2.805333984063741E-6
159                       2.7940778992051984E-6
160                       2.7832027371739674E-6
161                       2.772662600401794E-6
162                       2.7624113007247594E-6
163                       2.7524036577597955E-6
164                       2.7425967038981673E-6
165                       2.732950736974778E-6
166                       2.7234301769537784E-6
167                       2.7140041982009594E-6
168                       2.7046471234831093E-6
169                       2.6953385793515247E-6
170                       2.6860634241806813E-6
171                       2.676811470207172E-6
172                       2.6675770286878795E-6
173                       2.658358313034887E-6
174                       2.6491567380991155E-6
175                       2.6399761551876662E-6
176                       2.630822061574863E-6
177                       2.6217008207916165E-6
178                       2.6126189259772695E-6
179                       2.603582333449748E-6
180                       2.594595887798175E-6
181                       2.585662853542417E-6
182                       2.5767845622171354E-6
183                       2.5679601777133407E-6
184                       2.5591865774683134E-6
185                       2.5504583424546363E-6
186                       2.5417678452819676E-6
187                       2.5331054229509236E-6
188                       2.5244596191524E-6
189                       2.51581748003288E-6
190                       2.5071648873187403E-6
191                       2.4984869134365914E-6
192                       2.4897681841833518E-6
193                       2.480993236304508E-6
194                       2.4721468590088704E-6
195                       2.463214410383788E-6
196                       2.454182101749729E-6
197                       2.44503724475689E-6
198                       2.435768457933995E-6
199                       2.4263658309455286E-6
200                       2.4168210462285225E-6
201                       2.407127458954801E-6
202                       2.397280137209488E-6
203                       2.387275865139196E-6
204                       2.3771131124772368E-6
205                       2.3667919742230363E-6
206                       2.3563140847400553E-6
207                       2.345682510535234E-6
208                       2.3349016261875505E-6
209                       2.323976977767801E-6
210                       2.312915137933291E-6
211                       2.3017235567182956E-6
212                       2.290410411663367E-6
213                       2.2789844605770303E-6
214                       2.2674548997978672E-6
215                       2.255831230421792E-6
216                       2.2441231343913844E-6
217                       2.232340361969006E-6
218                       2.220492631573312E-6
219                       2.2085895425727716E-6
220                       2.1966405011608843E-6
221                       2.184654659136281E-6
222                       2.172640865052734E-6
223                       2.160607626943939E-6
224                       2.148563085672811E-6
225                       2.136514997768875E-6
226                       2.1244707265477555E-6
227                       2.112437240255761E-6
228                       2.100421116051446E-6
229                       2.0884285485898458E-6
230                       2.07646536213138E-6
231                       2.064537025169743E-6
232                       2.0526486667115845E-6
233                       2.0408050934139375E-6
234                       2.029010807011172E-6
235                       2.0172700214780863E-6
236                       2.005586679600635E-6
237                       1.993964468660185E-6
238                       1.9824068350792965E-6
239                       1.970916997933841E-6
240                       1.9594979613282657E-6
241                       1.948152525658334E-6
242                       1.9368832978533225E-6
243                       1.9256927006907535E-6
244                       1.914582981321441E-6
245                       1.9035562191244115E-6
246                       1.8926143330047301E-6
247                       1.8817590882812412E-6
248                       1.8709921032550584E-6
249                       1.8603148555406848E-6
250                       1.8497286882450002E-6
251                       1.8392348160438708E-6
252                       1.8288343311844839E-6
253                       1.8185282094582194E-6
254                       1.808317316092949E-6
255                       1.798202411628212E-6
256                       1.7881841576815715E-6
257                       1.7782631226208172E-6
258                       1.7684397870939841E-6
259                       1.7587145493754426E-6
260                       1.7490877304918664E-6
261                       1.7395595790810857E-6
262                       1.7301302759697333E-6
263                       1.7207999384143688E-6
264                       1.711568623993742E-6
265                       1.7024363341286314E-6
266                       1.6934030172271935E-6
267                       1.6844685714363903E-6
268                       1.6756328470191964E-6
269                       1.666895648358366E-6
270                       1.6582567356066727E-6
271                       1.6497158260109306E-6
272                       1.6412725949429033E-6
273                       1.632926676648359E-6
274                       1.6246776647872675E-6
275                       1.6165251127754796E-6
276                       1.6084685339798024E-6
277                       1.600507401805062E-6
278                       1.5926411497215851E-6
279                       1.5848691712579456E-6
280                       1.5771908200079253E-6
281                       1.5696054096803182E-6
282                       1.562112214218554E-6
283                       1.5547104680260772E-6
284                       1.5473993663089043E-6
285                       1.5401780655546804E-6
286                       1.5330456841744177E-6
287                       1.526001303298575E-6
288                       1.5190439677340992E-6
289                       1.5121726870995723E-6
290                       1.5053864371142947E-6
291                       1.4986841610474522E-6
292                       1.4920647713169905E-6
293                       1.4855271512064689E-6
294                       1.4790701567383733E-6
295                       1.4726926186030606E-6
296                       1.4663933442197524E-6
297                       1.460171119839064E-6
298                       1.4540247127091758E-6
299                       1.4479528732706626E-6
300                       1.441954337365915E-6
301                       1.4360278284580068E-6
302                       1.430172059809052E-6
303                       1.4243857366478104E-6
304                       1.4186675582779739E-6
305                       1.413016220131546E-6
306                       1.4074304157510238E-6
307                       1.401908838690723E-6
308                       1.3964501843401233E-6
309                       1.391053151637048E-6
310                       1.38571644470504E-6
311                       1.3804387743738018E-6
312                       1.3752188596090977E-6
313                       1.3700554288307842E-6
314                       1.3649472211388606E-6
315                       1.359892987437335E-6
316                       1.3548914914593418E-6
317                       1.3499415107009899E-6
318                       1.34504183726644E-6
319                       1.3401912786303626E-6
320                       1.3353886583182753E-6
321                       1.3306328165186034E-6
322                       1.3259226106159674E-6
323                       1.3212569156733375E-6
324                       1.3166346248474398E-6
325                       1.3120546497568722E-6
326                       1.3075159208016836E-6
327                       1.3030173874349115E-6
328                       1.298558018403603E-6
329                       1.2941368019524043E-6
330                       1.2897527459903513E-6
331                       1.285404878244589E-6
332                       1.2810922463703094E-6
333                       1.2768139180615182E-6
334                       1.272568981119883E-6
335                       1.2683565435215138E-6
336                       1.2641757334644032E-6
337                       1.2600256993930207E-6
338                       1.2559056100202133E-6
339                       1.2518146543277463E-6
340                       1.2477520415572987E-6
341                       1.243717001188166E-6
342                       1.2397087829017592E-6
343                       1.2357266565339118E-6
344                       1.2317699120160063E-6
345                       1.2278378592993524E-6
346                       1.2239298282676961E-6
347                       1.2200451686417114E-6
348                       1.2161832498595072E-6
349                       1.21234346094833E-6
350                       1.2085252103862675E-6
351                       1.2047279259364826E-6
352                       1.2009510544834635E-6
353                       1.1971940618361997E-6
354                       1.193456432532736E-6
355                       1.189737669617284E-6
356                       1.1860372944113892E-6
357                       1.1823548462632407E-6
358                       1.1786898822892331E-6
359                       1.1750419770978229E-6
360                       1.1714107224992002E-6
361                       1.1677957272050355E-6
362                       1.1641966165167613E-6
363                       1.1606130319966945E-6
364                       1.1570446311360082E-6
365                       1.1534910870046598E-6
366                       1.149952087900781E-6
367                       1.1464273369850227E-6
368                       1.142916551911985E-6
369                       1.1394194644503896E-6
370                       1.1359358201032765E-6
371                       1.1324653777214964E-6
372                       1.1290079091126068E-6
373                       1.125563198647781E-6
374                       1.122131042867298E-6
375                       1.1187112500855695E-6
376                       1.1153036399942743E-6
377                       1.111908043271521E-6
378                       1.1085243011834784E-6
379                       1.105152265198871E-6
380                       1.101791796599658E-6
381                       1.0984427660974093E-6
382                       1.0951050534558248E-6
383                       1.091778547116465E-6
384                       1.0884631438305159E-6
385                       1.0851587482972758E-6
386                       1.081865272809442E-6
387                       1.078582636904435E-6
388                       1.0753107670232903E-6
389                       1.07204959617982E-6
390                       1.0687990636321148E-6
391                       1.0655591145696086E-6
392                       1.062329699802107E-6
393                       1.0591107754608875E-6
394                       1.0559023027089518E-6
395                       1.0527042474568705E-6
396                       1.04951658009019E-6
397                       1.0463392752048768E-6
398                       1.0431723113530193E-6
399                       1.0400156707930448E-6
400                       1.0368693392553587E-6
401                       1.033733305707995E-6
402                       1.0306075621405167E-6
403                       1.0274921033497316E-6
404                       1.0243869267337773E-6
405                       1.0212920320989396E-6
406                       1.0182074214700442E-6
407                       1.0151330989097022E-6
408                       1.0120690703478701E-6
409                       1.0090153434131427E-6
410                       1.0059719272798174E-6
411                       1.0029388325111465E-6
412                       9.999160709202685E-7
413                       9.969036554302698E-7
414                       9.939015999430193E-7
415                       9.909099192148232E-7
416                       9.879286287382184E-7
417                       9.849577446289183E-7
418                       9.819972835160214E-7
419                       9.790472624431812E-7
420                       9.761076987702886E-7
421                       9.731786100810968E-7
422                       9.702600140976325E-7
423                       9.673519285956047E-7
424                       9.644543713290814E-7
425                       9.615673599542475E-7
426                       9.586909119616795E-7
427                       9.558250446102693E-7
428                       9.529697748640253E-7
429                       9.501251193356338E-7
430                       9.472910942303284E-7
431                       9.44467715295037E-7
432                       9.416549977700339E-7
433                       9.388529563437412E-7
434                       9.360616051103052E-7
435                       9.33280957529532E-7
436                       9.305110263919496E-7
437                       9.277518237819108E-7
438                       9.2500336104802E-7
439                       9.222656487724989E-7
440                       9.19538696745306E-7
441                       9.168225139372766E-7
442                       9.141171084789181E-7
443                       9.114224876396676E-7
444                       9.087386578065038E-7
445                       9.060656244697112E-7
446                       9.034033922062308E-7
447                       9.00751964664173E-7
448                       8.981113445549728E-7
449                       8.954815336386005E-7
450                       8.928625327161558E-7
451                       8.902543416227554E-7
452                       8.87656959219718E-7
453                       8.850703833902254E-7
454                       8.824946110371876E-7
455                       8.799296380759336E-7
456                       8.773754594383189E-7
457                       8.748320690679446E-7
458                       8.722994599232094E-7
459                       8.697776239781966E-7
460                       8.672665522248471E-7
461                       8.647662346764712E-7
462                       8.622766603725437E-7
463                       8.597978173839901E-7
464                       8.5732969281714E-7
465                       8.548722728235154E-7
466                       8.524255426043407E-7
467                       8.499894864198892E-7
468                       8.475640875985773E-7
469                       8.451493285453929E-7
470                       8.427451907510874E-7
471                       8.403516548044727E-7
472                       8.379687004020293E-7
473                       8.355963063594486E-7
474                       8.332344506233035E-7
475                       8.308831102843342E-7
476                       8.285422615880887E-7
477                       8.262118799508237E-7
478                       8.238919399698229E-7
479                       8.215824154395609E-7
480                       8.192832793644658E-7
481                       8.169945039735499E-7
482                       8.147160607345745E-7
483                       8.124479203693232E-7
484                       8.101900528693019E-7
485                       8.079424275086017E-7
486                       8.057050128618625E-7
487                       8.034777768183975E-7
488                       8.01260686598183E-7
489                       7.990537087672197E-7
490                       7.968568092539159E-7
491                       7.946699533654877E-7
492                       7.924931058023484E-7
493                       7.903262306763305E-7
494                       7.881692915249651E-7
495                       7.860222513283372E-7
496                       7.838850725251935E-7
497                       7.817577170298184E-7
498                       7.796401462463253E-7
499                       7.775323210868042E-7
500                       7.754342019851797E-7
501                       7.733457489159713E-7
502                       7.712669214069878E-7
503                       7.691976785576959E-7
504                       7.671379790541411E-7
505                       7.650877811835474E-7
506                       7.630470428520128E-7
507                       7.610157215978119E-7
508                       7.589937746080721E-7
509                       7.569811587331033E-7
510                       7.549778305020657E-7
511                       7.529837461376013E-7
512                       7.509988615701663E-7
513                       7.490231324533009E-7
514                       7.470565141777603E-7
515                       7.4509896188527E-7
516                       7.431504304832671E-7
517                       7.412108746585076E-7
518                       7.392802488905031E-7
519                       7.373585074659134E-7
520                       7.354456044902465E-7
521                       7.335414939027769E-7
522                       7.316461294881311E-7
523                       7.29759464889219E-7
524                       7.278814536204239E-7
525                       7.260120490796753E-7
526                       7.241512045595319E-7
527                       7.222988732600588E-7
528                       7.204550083007855E-7
529                       7.186195627307355E-7
530                       7.167924895408797E-7
531                       7.149737416752598E-7
532                       7.131632720400188E-7
533                       7.113610335164567E-7
534                       7.095669789693471E-7
535                       7.077810612580375E-7
536                       7.060032332464581E-7
537                       7.042334478119898E-7
538                       7.024716578558807E-7
539                       7.007178163117771E-7
540                       6.989718761551919E-7
541                       6.972337904122098E-7
542                       6.955035121681226E-7
543                       6.937809945753302E-7
544                       6.920661908625169E-7
545                       6.903590543412922E-7
546                       6.886595384161987E-7
547                       6.869675965887661E-7
548                       6.852831824678427E-7
549                       6.836062497759803E-7
550                       6.819367523558913E-7
551                       6.802746441763752E-7
552                       6.786198793417078E-7
553                       6.769724120947659E-7
554                       6.75332196824762E-7
555                       6.736991880733035E-7
556                       6.720733405394578E-7
557                       6.704546090857159E-7
558                       6.688429487432942E-7
559                       6.672383147173827E-7
560                       6.656406623921974E-7
561                       6.640499473359084E-7
562                       6.624661253047139E-7
563                       6.608891522479728E-7
564                       6.593189843124809E-7
565                       6.577555778461114E-7
566                       6.561988894025258E-7
567                       6.546488757445067E-7
568                       6.531054938473349E-7
569                       6.515687009033708E-7
570                       6.500384543244661E-7
571                       6.485147117455736E-7
572                       6.469974310274097E-7
573                       6.454865702598837E-7
574                       6.439820877646976E-7
575                       6.424839420975355E-7
576                       6.409920920515373E-7
577                       6.395064966582988E-7
578                       6.380271151918375E-7
579                       6.365539071687328E-7
580                       6.350868323515626E-7
581                       6.336258507501497E-7
582                       6.32170922623765E-7
583                       6.307220084815164E-7
584                       6.292790690857256E-7
585                       6.278420654513163E-7
586                       6.264109588487545E-7
587                       6.249857108042637E-7
588                       6.235662831007193E-7
589                       6.221526377798462E-7
590                       6.207447371413778E-7
591                       6.193425437451851E-7
592                       6.179460204110699E-7
593                       6.165551302199724E-7
594                       6.151698365139257E-7
595                       6.137901028966113E-7
596                       6.124158932339877E-7
597                       6.110471716539095E-7
598                       6.09683902546942E-7
599                       6.083260505655683E-7
600                       6.069735806254087E-7
601                       6.056264579037934E-7
602                       6.042846478399833E-7
603                       6.029481161361566E-7
604                       6.01616828754974E-7
605                       6.002907519212553E-7
606                       5.989698521200656E-7
607                       5.976540960969406E-7
608                       5.96343450857238E-7
609                       5.950378836653987E-7
610                       5.937373620444537E-7
611                       5.924418537751268E-7
612                       5.911513268953265E-7
613                       5.898657496990359E-7
614                       5.885850907352872E-7
615                       5.873093188078778E-7
616                       5.860384029738615E-7
617                       5.84772312542713E-7
618                       5.835110170753852E-7
619                       5.822544863831036E-7
620                       5.810026905259109E-7
621                       5.797555998126158E-7
622                       5.785131847978408E-7
623                       5.772754162827828E-7
624                       5.760422653119847E-7
625                       5.748137031736478E-7
626                       5.735897013972847E-7