% Model:              frequency_response_and_eigenfrequencies_undamped.mph
% Version:            COMSOL 5.2.0.220
% Date:               Dec 14 2018, 02:20
% Dimension:          1
% Nodes:              2001
% Expressions:        1
% Description:        Point graph
% x                       Height
0                         4.74032041283202E-5
1                         4.807585066614154E-5
2                         5.0208123421266E-5
3                         5.4195207228729895E-5
4                         6.091946383965013E-5
5                         7.235023208755945E-5
6                         9.354311319917384E-5
7                         1.419672636322966E-4
8                         3.4369077478624884E-4
9                         5.947407578128923E-4
10                        1.4939201905557665E-4
11                        8.272585265684044E-5
12                        5.611453767345567E-5
13                        4.194005711901951E-5
14                        3.32177881174592E-5
15                        2.7362469020881662E-5
16                        2.3196655474602177E-5
17                        2.0104542711012682E-5
18                        1.832323400533621E-5
19                        1.5957726735273376E-5
20                        1.4503370469670805E-5
21                        1.3349852644169818E-5
22                        1.2432824830579964E-5
23                        1.1711085372624904E-5
24                        1.1158680545603793E-5
25                        1.076199393356382E-5
26                        1.0519198257666874E-5
27                        1.0441283914989741E-5
28                        1.054855127648908E-5
29                        1.0698478930790132E-5
30                        1.256459774742789E-5
31                        1.4437131938280177E-5
32                        1.965456813358144E-5
33                        4.5336710944985026E-5
34                        4.2333510536226775E-5
35                        9.986610011495275E-6
36                        4.10151497797917E-6
37                        1.7017464724412925E-6
38                        4.3061738388964067E-7
39                        3.403427594225969E-7
40                        8.500781085874593E-7
41                        1.2104223233587518E-6
42                        1.4880765502608974E-6
43                        4.31716604223659E-6
44                        1.7672127699897553E-6
45                        1.9140848477601737E-6
46                        2.028770126654492E-6
47                        2.1272398088336847E-6
48                        2.216215462920697E-6
49                        2.300504047744955E-6
50                        2.3860967972068785E-6
51                        2.528544574663628E-6
52                        2.5047284331865E-6
53                        2.6023849556476317E-6
54                        2.6955642825693424E-6
55                        2.7946963686894794E-6
56                        2.9044493054423715E-6
57                        3.0325238458357523E-6
58                        3.2197193937481857E-6
59                        3.0900796403420236E-6
60                        3.3760399752829342E-6
61                        3.580040701387647E-6
62                        3.8015284318596362E-6
63                        4.05585091118511E-6
64                        4.354964101922754E-6
65                        4.713365103130363E-6
66                        5.151016056837537E-6
67                        5.6970758477228454E-6
68                        6.396094636223376E-6
69                        7.318583053504551E-6
70                        8.570774774220165E-6
71                        9.597396383174186E-6
72                        1.4147877836375617E-5
73                        2.0350525059763646E-5
74                        3.799244181611163E-5
75                        3.6505790173816635E-4
76                        4.673350956624146E-5
77                        2.1445319258380185E-5
78                        1.3855702296109788E-5
79                        1.016307979591606E-5
80                        7.982780142744458E-6
81                        6.544636678780835E-6
82                        5.525234097545149E-6
83                        4.76503386489867E-6
84                        4.17621066940849E-6
85                        3.706361650155994E-6
86                        3.3221781688105556E-6
87                        3.0013010632538165E-6
88                        2.7278468384902256E-6
89                        2.489568827035874E-6
90                        2.2752750650089973E-6
91                        2.0697168079842374E-6
92                        1.8272551164672427E-6
93                        4.610571713077263E-7
94                        2.033200791009625E-6
95                        1.7600266549775019E-6
96                        2.0088937586391515E-6
97                        1.556805084666047E-6
98                        1.4461912510470727E-6
99                        1.3485190676385067E-6
100                       1.244445914606702E-6
101                       1.0229294912482176E-6
102                       1.3425084946312072E-6
103                       1.1863038176294536E-6
104                       1.1078519827684297E-6
105                       1.0460347104538563E-6
106                       9.915623239829868E-7
107                       9.414255857233662E-7
108                       8.94143647523304E-7
109                       8.487252192660183E-7
110                       8.043086001101898E-7
111                       7.599455073429304E-7
112                       7.143371046683768E-7
113                       6.652850383296604E-7
114                       6.081157886204251E-7
115                       5.294178425526168E-7
116                       3.6264740421288827E-7
117                       4.482056785416969E-6
118                       8.150195535336554E-7
119                       6.431526372815356E-7
120                       5.586967775342689E-7
121                       4.929697897153005E-7
122                       4.315575142003024E-7
123                       3.6839128842293953E-7
124                       2.9913014108325327E-7
125                       2.190437397311147E-7
126                       1.2135944461455455E-7
127                       5.646480443974459E-9
128                       1.8699974128597535E-7
129                       5.032385768312491E-7
130                       1.6174258319700073E-6
131                       7.983433252249784E-7
132                       2.446698305105397E-6
133                       1.5662740475576434E-5
134                       6.207744754759726E-6
135                       3.0573610029266667E-6
136                       2.1845827115957033E-6
137                       1.7688842424728489E-6
138                       1.5215653820023748E-6
139                       1.3542075581461333E-6
140                       1.2347427165382847E-6
141                       1.0574499435127254E-6
142                       9.351398657778361E-7
143                       8.67346893432493E-9
144                       1.3240536462947284E-6
145                       1.1236369644305964E-6
146                       1.0461668745709057E-6
147                       9.972792923573317E-7
148                       9.60866366445919E-7
149                       9.315727622401907E-7
150                       9.06945610694296E-7
151                       8.856047788151634E-7
152                       8.666387324428949E-7
153                       8.493451975928791E-7
154                       8.330790275921428E-7
155                       8.171093224953718E-7
156                       8.003924169234403E-7
157                       7.810409484821818E-7
158                       7.546509516053979E-7
159                       7.06633960235677E-7
160                       5.345528890279778E-7
161                       1.3445979013995064E-6
162                       9.297202649361131E-7
163                       8.653912146557985E-7
164                       8.336051135410863E-7
165                       8.090234428276337E-7
166                       7.48816201586021E-7
167                       6.678523273463982E-7
168                       2.9278632400657454E-6
169                       8.456917246719062E-7
170                       8.018112067693891E-7
171                       6.791874357125366E-7
172                       4.1335054800518815E-6
173                       1.1034006558596724E-6
174                       1.0126415778430595E-6
175                       9.8619341012956E-7
176                       9.778029492363999E-7
177                       9.776784930891386E-7
178                       9.82483221657355E-7
179                       9.90792420520344E-7
180                       1.001922809098982E-6
181                       1.0155329722940202E-6
182                       1.0314591240957106E-6
183                       1.0496363106380702E-6
184                       1.0700526781885224E-6
185                       1.092713187068197E-6
186                       1.1175957456488806E-6
187                       1.1445761307251928E-6
188                       1.1732699339184782E-6
189                       1.2026473749103182E-6
190                       1.2299287036105804E-6
191                       1.2465395997983176E-6
192                       1.2141939974932801E-6
193                       2.3819336286611063E-6
194                       2.0661190478969894E-6
195                       1.837147131902698E-6
196                       1.8756159764872466E-6
197                       1.970235691210803E-6
198                       2.1022926978237538E-6
199                       2.272815238239496E-6
200                       2.4908768684798472E-6
201                       2.7731923696851282E-6
202                       3.144058994164538E-6
203                       3.5957846363518068E-6
204                       5.394513377129488E-6
205                       6.9148046994972546E-6
206                       3.0293682030905916E-6
207                       6.949033614995718E-6
208                       1.3519861247024166E-5
209                       6.979275468948885E-5
210                       2.318132511602786E-5
211                       9.954475386120288E-6
212                       6.314519022610126E-6
213                       4.604374633505922E-6
214                       3.609217547215251E-6
215                       2.9578748558567065E-6
216                       2.4985757847482138E-6
217                       2.1576560716407627E-6
218                       1.8950579850623751E-6
219                       1.687205418576009E-6
220                       1.5195311110892518E-6
221                       1.383627385800201E-6
222                       1.2882033016823511E-6
223                       1.1666621444280795E-6
224                       1.091735534158792E-6
225                       1.0339485653567201E-6
226                       1.0005770430243321E-6
227                       1.0211327966219992E-6
228                       1.375900081984224E-6
229                       1.428009828346278E-7
230                       4.809842067369843E-7
231                       5.213192440566644E-7
232                       5.216209587422576E-7
233                       5.115911749248686E-7
234                       5.002527471563726E-7
235                       4.936483104802378E-7
236                       5.040907237368914E-7
237                       6.144046466974385E-7
238                       2.6676275204800452E-8
239                       2.581522106102285E-7
240                       2.8222634069035114E-7
241                       2.797934121973809E-7
242                       2.6718253473782813E-7
243                       2.4224863930241546E-7
244                       1.458264811976479E-7
245                       5.310093990526436E-7
246                       1.0913516889669666E-7
247                       2.2287381447556604E-7
248                       2.2209836327164577E-7
249                       2.145756869605124E-7
250                       2.0620390926279546E-7
251                       1.9825232649123362E-7
252                       1.8267445690721273E-7
253                       1.954213202132949E-7
254                       5.681258513717217E-8
255                       7.388531170863436E-8
256                       1.2526485004836067E-7
257                       1.2797120138820763E-7
258                       1.2633129982307348E-7
259                       1.2448366231013384E-7
260                       1.2415960859221892E-7
261                       1.2723107993042075E-7
262                       1.372220297727078E-7
263                       1.6338390225557582E-7
264                       2.425386934626607E-7
265                       8.528760411057778E-7
266                       1.8993709118086681E-7
267                       1.5477092036783618E-7
268                       1.040779861021568E-7
269                       8.631778832897051E-8
270                       8.057317941663157E-8
271                       8.061822926950829E-8
272                       8.405276985426808E-8
273                       9.087128851139174E-8
274                       1.730548449295348E-7
275                       1.8650371833499102E-7
276                       1.348512374028092E-7
277                       1.3910788934423972E-7
278                       1.489960923085861E-7
279                       1.6125125378127893E-7
280                       1.7521634436067338E-7
281                       1.9077746673564254E-7
282                       2.080383728937041E-7
283                       2.2727239517090155E-7
284                       2.489912814665919E-7
285                       2.7421589780943323E-7
286                       2.6975179618408905E-7
287                       3.57487593452184E-7
288                       1.6249192350071978E-6
289                       3.845697459006566E-7
290                       1.0806237266462099E-7
291                       3.580382779759454E-7
292                       4.239160487433345E-7
293                       4.810293471669827E-7
294                       5.408265989870588E-7
295                       6.077023881189367E-7
296                       6.852574717009614E-7
297                       7.778264799905945E-7
298                       8.916832920924239E-7
299                       1.037165998254393E-6
300                       1.2342733500222607E-6
301                       1.534822047014839E-6
302                       2.223116595022157E-6
303                       4.463780824902894E-7
304                       2.121203312840762E-6
305                       4.999896218560484E-6
306                       3.693805824355551E-6
307                       1.3343408492528509E-5
308                       2.55615700857883E-5
309                       7.047833254069693E-6
310                       4.20338055148875E-6
311                       3.0491557266010695E-6
312                       2.4381585393352995E-6
313                       2.015492927841544E-6
314                       3.2645201339025826E-6
315                       1.4020690624138303E-6
316                       1.298677526532082E-6
317                       1.194298371824432E-6
318                       1.105089290885346E-6
319                       1.029986672053948E-6
320                       9.66711128069673E-7
321                       9.141824446191533E-7
322                       7.795482494028358E-7
323                       8.196901768238362E-7
324                       7.859420321548779E-7
325                       7.55721181898183E-7
326                       7.292297303666446E-7
327                       7.06261578327775E-7
328                       6.867115445253237E-7
329                       6.707250030659365E-7
330                       6.589376640233072E-7
331                       6.531465479869717E-7
332                       6.587896806138934E-7
333                       6.993889216506853E-7
334                       1.1779356661478373E-6
335                       3.4042939567599303E-7
336                       4.6562824932734406E-7
337                       4.827744115376293E-7
338                       4.890429070773608E-7
339                       4.909565332185366E-7
340                       4.914839209247068E-7
341                       4.921147060478296E-7
342                       4.939672406174985E-7
343                       4.983911461463526E-7
344                       5.077998608676133E-7
345                       5.280420938453074E-7
346                       5.791236461166344E-7
347                       8.325326849051347E-7
348                       1.0620017290894937E-7
349                       2.6152624309759293E-7
350                       3.228493958870285E-7
351                       3.7344045219221336E-7
352                       8.731984118593702E-9
353                       5.365332686739457E-7
354                       5.272776939170578E-7
355                       4.0526462282235263E-7
356                       4.0952942050500766E-7
357                       4.066553368185371E-7
358                       3.935671008427802E-7
359                       3.574742852312158E-7
360                       5.019104442175128E-8
361                       1.1177836570093991E-6
362                       1.0815783515320302E-6
363                       3.15757818609163E-6
364                       4.6224662172580927E-7
365                       4.5071275222125965E-8
366                       1.7835362366288387E-7
367                       2.3945943641891223E-7
368                       2.751160621504491E-7
369                       2.9933589488816223E-7
370                       3.178284499539615E-7
371                       3.3346685897261656E-7
372                       3.4802440602038767E-7
373                       3.629097631480928E-7
374                       3.796416463181413E-7
375                       4.0042692158912734E-7
376                       4.293817057397817E-7
377                       4.7621107026008005E-7
378                       5.721442019398913E-7
379                       9.077035738363303E-7
380                       1.868025403936907E-6
381                       7.970891578233826E-8
382                       8.672494083418478E-8
383                       1.317824217816622E-7
384                       7.026072323659879E-8
385                       5.024146482960357E-7
386                       3.3546561961457133E-7
387                       3.149699039676346E-7
388                       3.0609095063882E-7
389                       2.9438147068116045E-7
390                       2.670927325067021E-7
391                       1.7469179957342463E-7
392                       8.812202784595864E-6
393                       6.210465116571162E-7
394                       4.517886399365687E-7
395                       4.7546962229861317E-7
396                       4.7171489931890204E-7
397                       4.743512054859725E-7
398                       4.962062225289895E-7
399                       4.582454468988961E-7
400                       4.766321167811958E-7
401                       6.22147041951665E-7
402                       2.191717342904504E-7
403                       4.5970101152427685E-7
404                       1.1422656198254126E-6
405                       8.488955336812535E-7
406                       8.050143965074822E-7
407                       8.094745857395483E-7
408                       8.357239141312191E-7
409                       8.777180425763318E-7
410                       9.352938327654942E-7
411                       1.0116919264840608E-6
412                       1.1141204194407349E-6
413                       1.2570259644993816E-6
414                       1.4720916642176128E-6
415                       1.8446948667261924E-6
416                       2.7203282978590867E-6
417                       9.297504132572928E-6
418                       2.137980392368227E-6
419                       5.719651123603088E-8
420                       8.805787482427792E-7
421                       1.1699913309861656E-6
422                       1.969537445148604E-6
423                       3.4185718742491213E-6
424                       8.420497344589447E-6
425                       2.7284260018810585E-5
426                       5.488132989830145E-6
427                       3.121930121392283E-6
428                       2.2425927653921155E-6
429                       1.9615764580845677E-6
430                       6.396551396500837E-7
431                       7.613795993662275E-7
432                       1.6033147230694015E-6
433                       9.105468364167858E-7
434                       7.75522955473695E-7
435                       6.880320811395414E-7
436                       6.193783289499235E-7
437                       5.565380718024549E-7
438                       4.436474569005676E-7
439                       6.481265557925219E-7
440                       5.780047478511641E-7
441                       3.59788811528621E-7
442                       5.097965991459668E-7
443                       2.348700805427168E-6
444                       2.784575618907734E-7
445                       1.3849385056026143E-7
446                       1.9806831432133283E-7
447                       2.178249900532026E-7
448                       2.2641966949719992E-7
449                       2.3185354991075985E-7
450                       2.3785282957260194E-7
451                       2.4740527347266246E-7
452                       2.6469154494749366E-7
453                       2.9856931093915746E-7
454                       3.759803285343255E-7
455                       6.473083756015839E-7
456                       2.9847854165176056E-6
457                       4.057888269147997E-7
458                       1.1505126118366108E-7
459                       4.7355527344344644E-8
460                       1.6129930091182753E-8
461                       7.890848970727509E-10
462                       1.0654117913324684E-8
463                       1.657902481972192E-8
464                       2.0129400045662226E-8
465                       2.218290954747296E-8
466                       2.3275104004053352E-8
467                       2.3758484893559298E-8
468                       2.388422795777118E-8
469                       2.3849199724090206E-8
470                       2.3827429629505662E-8
471                       2.3996570548291926E-8
472                       2.456775315580661E-8
473                       2.5830064921367464E-8
474                       2.8232120112953014E-8
475                       3.255799506122761E-8
476                       4.0377063753060904E-8
477                       5.552058868052664E-8
478                       9.26151653354944E-8
479                       8.321340659258361E-8
480                       6.661929456191068E-7
481                       3.62893136932644E-7
482                       1.8112452519646289E-7
483                       1.4718681044413546E-7
484                       1.958694884088045E-7
485                       1.2362852194072138E-8
486                       8.641690720500691E-8
487                       2.17735564684852E-7
488                       2.4891996797044683E-7
489                       1.2099785013095963E-7
490                       1.0738463854030699E-7
491                       8.751955303076082E-8
492                       1.0978774477991963E-8
493                       4.160913722818459E-6
494                       7.279294571740471E-7
495                       6.644888412428346E-7
496                       4.500264600277635E-6
497                       6.36380456705161E-7
498                       7.331473948813041E-7
499                       1.5726231700137593E-7
500                       9.587184537784744E-8
501                       6.170395509288223E-8
502                       3.964573045147974E-8
503                       2.417504305050305E-8
504                       1.2736766159994836E-8
505                       4.0007872810270755E-9
506                       2.7664047505184182E-9
507                       7.9634555405553E-9
508                       1.1764884261971147E-8
509                       1.414952501292993E-8
510                       1.4853020093009828E-8
511                       1.3183864679243563E-8
512                       7.448454309718055E-9
513                       7.219313665604459E-9
514                       5.183459689014106E-8
515                       5.542219928455519E-7
516                       2.121177075126103E-7
517                       1.2324199298539288E-7
518                       9.433118329979588E-8
519                       7.21776732596957E-8
520                       3.599811895562602E-8
521                       1.2518135303052243E-7
522                       3.8951547971034943E-7
523                       2.08833173938699E-7
524                       1.7579813134844825E-7
525                       1.6317358300211575E-7
526                       1.5724464651917232E-7
527                       1.5413407598772872E-7
528                       1.5209779941647774E-7
529                       1.4984782323976816E-7
530                       1.4563851343860648E-7
531                       1.3532774050892933E-7
532                       9.649170440860287E-8
533                       9.14721717138194E-8
534                       3.552144416592364E-7
535                       2.545982445105681E-7
536                       2.83673435509876E-7
537                       2.6222936260597325E-7
538                       2.619242504064927E-7
539                       2.6616316480751424E-7
540                       2.721269157686346E-7
541                       2.7708441817819035E-7
542                       2.7195413387656476E-7
543                       1.563955509852106E-7
544                       5.291861003953466E-7
545                       4.837258996497055E-7
546                       5.299977882822654E-7
547                       6.271843631700106E-7
548                       1.0133686435779803E-6
549                       2.4506157971251223E-6
550                       2.517276209715777E-6
551                       4.617386619849837E-6
552                       3.5298842524863365E-7
553                       1.275954100027247E-6
554                       1.4030677632882646E-6
555                       7.372436497130291E-7
556                       6.492340460146102E-7
557                       6.619997219847248E-7
558                       7.336625778089703E-7
559                       9.014093573215537E-7
560                       1.5346135975623384E-6
561                       1.203552119106128E-6
562                       1.6881920433785973E-7
563                       4.277063875808327E-7
564                       5.688393234217395E-7
565                       5.898913055367008E-7
566                       1.4737895844209314E-6
567                       1.4299825974020856E-6
568                       1.8165390021764064E-6
569                       2.6475104984035157E-6
570                       5.319199261149554E-6
571                       3.149815746792998E-5
572                       3.0796607186980724E-6
573                       1.143622503354459E-6
574                       2.0716630252570954E-7
575                       7.151987692512304E-7
576                       2.6248734103241573E-6
577                       5.516745248682711E-5
578                       4.72814227978256E-6
579                       2.565634043520549E-6
580                       1.866423218101939E-6
581                       1.3733647411208264E-6
582                       1.3921336879922302E-6
583                       1.058749395044283E-6
584                       9.41526112114843E-7
585                       8.515364606819774E-7
586                       8.001816492352614E-7
587                       7.132057857021044E-7
588                       6.643651499482872E-7
589                       6.212550081691383E-7
590                       5.818295987800115E-7
591                       5.361981958883531E-7
592                       5.920745173761429E-7
593                       5.245269047366717E-7
594                       4.990343993384306E-7
595                       4.7182600161870866E-7
596                       4.5807125388275245E-7
597                       4.4366809724448863E-7
598                       4.311246071399083E-7
599                       4.204911631682428E-7
600                       4.118078442423726E-7
601                       4.052275051666229E-7
602                       4.010912665287184E-7
603                       4.000669442770985E-7
604                       4.034615105503562E-7
605                       4.1402968401166044E-7
606                       4.3852512468975946E-7
607                       4.988966117212226E-7
608                       7.320663680632789E-7
609                       9.410716559889507E-7
610                       8.223870583797696E-8
611                       2.1973462541142462E-7
612                       3.508574204959581E-7
613                       1.248842328105667E-6
614                       6.183845164372222E-7
615                       4.7317571854178915E-7
616                       1.7901971447683187E-7
617                       1.3272500121053557E-7
618                       3.91279301877025E-8
619                       4.785527013237933E-7
620                       2.562202911486788E-7
621                       2.0636734744417492E-7
622                       3.063171477396853E-7
623                       2.3345565138783344E-7
624                       2.2117570874460927E-7
625                       2.1499761148645742E-7
626                       2.1113074602703615E-7