% Model:              frequency_response_and_eigenfrequencies_rayleigh_damping.mph
% Version:            COMSOL 5.2.0.220
% Date:               Dec 25 2018, 01:16
% Dimension:          1
% Nodes:              2001
% Expressions:        1
% Description:        Point graph
% x                       Height
0                         0
1                         5.988251985406311
2                         5.713844723449532
3                         5.4712993859164225
4                         5.262017843445274
5                         5.082016635707098
6                         4.925917593760475
7                         4.788812590051218
8                         4.666763881488221
9                         4.556754393045356
10                        4.456493845967641
11                        4.364227547157622
12                        4.278585387022606
13                        4.198471735599502
14                        4.122987673002034
15                        4.051376672280824
16                        3.982986787127622
17                        3.9172444873013084
18                        3.853637002131497
19                        3.7917013411909988
20                        3.731019145061854
21                        3.6712172612136063
22                        3.6119744785400716
23                        3.5530351466228476
24                        3.4942302926378597
25                        3.4355060738753713
26                        3.3769576442284244
27                        3.3188635946510554
28                        3.2617123393379934
29                        3.206208295063742
30                        3.153244558992155
31                        3.1038325290106625
32                        3.0589888463319794
33                        3.019594413885608
34                        2.9862536633538914
35                        2.959187921472365
36                        2.938190541003248
37                        2.9226548830240096
38                        2.911665734876126
39                        2.9041284276412216
40                        2.898903568770741
41                        2.8949199223830386
42                        2.891249828672785
43                        2.887144698639365
44                        2.8820376833713914
45                        2.875524767837642
46                        2.8673351862023586
47                        2.8572993260311375
48                        2.845319074978004
49                        2.831342933576055
50                        2.8153464808337216
51                        2.7973178259264735
52                        2.777247261726299
53                        2.7551202370002428
54                        2.7309128354823335
55                        2.7045891080598823
56                        2.676099801961294
57                        2.6453822312152733
58                        2.6123612047429794
59                        2.5769510519742664
60                        2.539058852404107
61                        2.498588997691591
62                        2.4554492063959446
63                        2.4095580813864483
64                        2.360854233386404
65                        2.3093068667171046
66                        2.2549275026240654
67                        2.197782190836866
68                        2.1380031558117305
69                        2.0757984101587468
70                        2.011457574024336
71                        1.9453521172855206
72                        1.8779286363796484
73                        1.80969463647273
74                        1.741197508149668
75                        1.6729986892598043
76                        1.6056460129548595
77                        1.5396476349365251
78                        1.4754505735837053
79                        1.4134259109591003
80                        1.3538614114931262
81                        1.2969610943153
82                        1.2428504210221742
83                        1.1915853457653984
84                        1.1431634725577673
85                        1.0975358409741918
86                        1.0546182636231443
87                        1.0143015446389025
88                        0.9764602471985246
89                        0.9409599192683894
90                        0.9076628372164504
91                        0.8764324041604938
92                        0.847136370115429
93                        0.8196490458322306
94                        0.7938526771541343
95                        0.7696381383193632
96                        0.7469050932635839
97                        0.7255617604777881
98                        0.7055243992426224
99                        0.686716611768184
100                       0.6690685313415428
101                       0.652515943637914
102                       0.6369993711864564
103                       0.6224631400825262
104                       0.6088544439815937
105                       0.5961224204162946
106                       0.5842172555737372
107                       0.5730893349109832
108                       0.5626884559540476
109                       0.5529631165045957
110                       0.5438598876440393
111                       0.5353228759732725
112                       0.5272932767158687
113                       0.5197090181724935
114                       0.5125045012450102
115                       0.5056104439439119
116                       0.49895385096188277
117                       0.49245813929524235
118                       0.4860434606253356
119                       0.4796272653959865
120                       0.47312514943840095
121                       0.4664520094149265
122                       0.4595235077613065
123                       0.4522578143224438
124                       0.44457755366599344
125                       0.4364118513752626
126                       0.4276983453447994
127                       0.41838501376999315
128                       0.40843167543567005
129                       0.3978110385158916
130                       0.38650921039869096
131                       0.3745256278472271
132                       0.36187241697806183
133                       0.3485732404233469
134                       0.3346617275632098
135                       0.3201796099229154
136                       0.3051746945724366
137                       0.28969880587771024
138                       0.27380581081899646
139                       0.257549820326026
140                       0.24098363176910623
141                       0.2241574502293724
142                       0.20711790082561976
143                       0.18990732374938865
144                       0.17256332861263693
145                       0.1551185745294498
146                       0.13760073810343046
147                       0.12003263025589768
148                       0.10243242529704791
149                       0.08481396934357609
150                       0.06718714018496272
151                       0.04955823585678611
152                       0.03193037392587694
153                       0.014303888018979477
154                       6.279862018842732
155                       6.262230049759518
156                       6.244587490189448
157                       6.226927160555242
158                       6.209240785257155
159                       6.191519250379343
160                       6.173752833860172
161                       6.1559314092807975
162                       6.138044624705612
163                       6.120082058460433
164                       6.102033353676108
165                       6.083888333824116
166                       6.0656371011616335
167                       6.047270120327016
168                       6.028778288952811
169                       6.010152997376676
170                       5.991386179183087
171                       5.972470354250805
172                       5.953398665967153
173                       5.934164913865752
174                       5.914763583036614
175                       5.895189871277399
176                       5.875439714970989
177                       5.8555098142714135
178                       5.835397658197698
179                       5.81510154989247
180                       5.794620632187995
181                       5.773954913351144
182                       5.75310529280675
183                       5.7320735863657415
184                       5.710862550403098
185                       5.689475904238365
186                       5.667918349961827
187                       5.64619558879348
188                       5.624314333081886
189                       5.602282313016483
190                       5.580108277169451
191                       5.5578019860399595
192                       5.5353741978977995
193                       5.512836646270253
194                       5.490202008652483
195                       5.467483866113793
196                       5.444696653704329
197                       5.421855601727775
198                       5.398976668149374
199                       5.376076462623321
200                       5.353172162787049
201                       5.330281423645198
202                       5.307422281056841
203                       5.284613050434096
204                       5.261872221937989
205                       5.239218353381252
206                       5.2166699623207915
207                       5.1942454186363145
208                       5.171962838962073
209                       5.149839984285143
210                       5.127894161902252
211                       5.106142132866846
212                       5.084600025855162
213                       5.063283258319296
214                       5.042206465565253
215                       5.021383438254831
216                       5.000827068628745
217                       4.980549305672783
218                       4.960561119146188
219                       4.940872472400442
220                       4.921492303655207
221                       4.902428515398723
222                       4.883687971378819
223                       4.865276500665306
224                       4.847198908162013
225                       4.82945899091933
226                       4.812059559577065
227                       4.795002464284363
228                       4.778288624428747
229                       4.7619180615276235
230                       4.745889934704426
231                       4.7302025781772405
232                       4.714853540232905
233                       4.699839623240505
234                       4.68515692427529
235                       4.670800875986142
236                       4.6567662874393765
237                       4.643047384602767
238                       4.629637850342286
239                       4.6165308636897695
240                       4.603719138313456
241                       4.5911949600367965
242                       4.578950223423186
243                       4.566976467305879
244                       4.555264909331327
245                       4.543806479465251
246                       4.5325918525202376
247                       4.521611479725653
248                       4.510855619379853
249                       4.500314366631735
250                       4.489977682433788
251                       4.479835421718483
252                       4.469877360822464
253                       4.460093224219151
254                       4.4504727105496755
255                       4.441005518005653
256                       4.431681369051178
257                       4.422490034507458
258                       4.413421356961315
259                       4.4044652735038206
260                       4.395611837776086
261                       4.3868512412614304
262                       4.378173833812978
263                       4.369570143372885
264                       4.361030894803123
265                       4.352547027807192
266                       4.34410971386557
267                       4.335710372173956
268                       4.327340684470916
269                       4.318992608750965
270                       4.310658391814298
271                       4.302330580592519
272                       4.294002032241401
273                       4.28566592294731
274                       4.277315755462116
275                       4.268945365321943
276                       4.260548925767253
277                       4.252120951363698
278                       4.243656300331766
279                       4.235150175632478
280                       4.226598124789653
281                       4.2179960385487
282                       4.209340148349953
283                       4.200627022733768
284                       4.191853562679013
285                       4.183016995955615
286                       4.17411487056965
287                       4.165145047346897
288                       4.156105691737576
289                       4.1469952649088695
290                       4.13781251420324
291                       4.12855646303282
292                       4.119226400291939
293                       4.1098218693331905
294                       4.100342656631509
295                       4.090788780124296
296                       4.081160477389678
297                       4.071458193656704
298                       4.0616825697170515
299                       4.051834429843385
300                       4.04191476970741
301                       4.0319247444006905
302                       4.021865656552901
303                       4.011738944654898
304                       4.001546171563775
305                       3.9912890132720564
306                       3.980969247941808
307                       3.9705887452598136
308                       3.9601494561204436
309                       3.9496534026565877
310                       3.9391026686544715
311                       3.928499390348334
312                       3.9178457476309285
313                       3.907143955649585
314                       3.8963962568498145
315                       3.8856049134105404
316                       3.8747722001334988
317                       3.8639003977291715
318                       3.8529917865420447
319                       3.842048640682793
320                       3.8310732225764084
321                       3.820067777915011
322                       3.8090345310046847
323                       3.7979756804958633
324                       3.7868933954910005
325                       3.775789812008383
326                       3.7646670298178546
327                       3.753527109576131
328                       3.7423720703222374
329                       3.7312038872594298
330                       3.720024489840935
331                       3.7088357601284647
332                       3.697639531426249
333                       3.68643758715621
334                       3.6752316599689463
335                       3.6640234310861595
336                       3.6528145298312555
337                       3.6416065333712133
338                       3.6304009666265666
339                       3.6191993023436693
340                       3.6080029613273847
341                       3.5968133128115616
342                       3.585631674944408
343                       3.5744593154083146
344                       3.5632974521200578
345                       3.552147254056459
346                       3.5410098421213183
347                       3.5298862901210915
348                       3.5187776257831898
349                       3.507684831841481
350                       3.496608847153252
351                       3.4855505678750336
352                       3.4745108486506213
353                       3.4634905038315824
354                       3.4524903087259484
355                       3.441511000838073
356                       3.4305532811373847
357                       3.4196178153124888
358                       3.4087052350349256
359                       3.3978161392081296
360                       3.3869510952105246
361                       3.376110640121346
362                       3.365295281939507
363                       3.354505500762607
364                       3.3437417499663824
365                       3.3330044573457838
366                       3.3222940262326532
367                       3.3116108365865498
368                       3.30095524606609
369                       3.290327591041221
370                       3.2797281876096496
371                       3.2691573325562744
372                       3.2586153042917188
373                       3.2481023637491564
374                       3.2376187552587803
375                       3.227164707376706
376                       3.2167404336858505
377                       3.2063461335649546
378                       3.1959819929215567
379                       3.1856481848919658
380                       3.1753448705073257
381                       3.1650721993327124
382                       3.1548303100668913
383                       3.1446193311203614
384                       3.134439381150234
385                       3.1242905695751793
386                       3.1141729970681564
387                       3.1040867559962506
388                       3.094031930858966
389                       3.084008598690505
390                       3.0740168294278223
391                       3.064056686270768
392                       3.0541282260049654
393                       3.0442314993063277
394                       3.034366551024049
395                       3.024533420446312
396                       3.0147321415343704
397                       3.004962743150234
398                       2.9952252492604265
399                       2.985519679122462
400                       2.975846047451008
401                       2.96620436457962
402                       2.9565946365971354
403                       2.9470168654712983
404                       2.9374710491690874
405                       2.927957181751396
406                       2.9184752534676774
407                       2.9090252508296537
408                       2.8996071566890413
409                       2.890220950291499
410                       2.8808666073325324
411                       2.8715440999996975
412                       2.862253397014297
413                       2.8529944636621285
414                       2.8437672618169985
415                       2.834571749964789
416                       2.82540788322165
417                       2.8162756133434446
418                       2.807174888739121
419                       2.798105654478038
420                       2.78906785228937
421                       2.7800614205767964
422                       2.7710862944079704
423                       2.762142405523431
424                       2.753229682332727
425                       2.744348049921459
426                       2.735497430040657
427                       2.726677741119616
428                       2.7178888982589844
429                       2.7091308132414675
430                       2.7004033945247707
431                       2.6917065472620014
432                       2.683040173296108
433                       2.674404171178398
434                       2.665798436175108
435                       2.657222860283882
436                       2.648677332249768
437                       2.6401617375831705
438                       2.6316759585826084
439                       2.623219874359976
440                       2.614793360865193
441                       2.606396290917715
442                       2.598028534239078
443                       2.5896899574922343
444                       2.5813804243103693
445                       2.573099795349957
446                       2.5648479283282724
447                       2.556624678072517
448                       2.5484298965717556
449                       2.5402634330263916
450                       2.5321251339063586
451                       2.5240148430073015
452                       2.5159324015143056
453                       2.507877648062498
454                       2.4998504188038995
455                       2.4918505474751416
456                       2.483877865469351
457                       2.4759322019058807
458                       2.4680133837049123
459                       2.460121235663771
460                       2.4522555805388584
461                       2.444416239119985
462                       2.436603030313343
463                       2.428815771222657
464                       2.421054277237345
465                       2.413318362112644
466                       2.4056078380559294
467                       2.3979225158177675
468                       2.3902622047745514
469                       2.382626713018986
470                       2.3750158474478473
471                       2.367429413855211
472                       2.3598672170142443
473                       2.3523290607702947
474                       2.344814748135212
475                       2.337324081369332
476                       2.3298568620753968
477                       2.3224128912826143
478                       2.314991969543165
479                       2.3075938970137813
480                       2.300218473541935
481                       2.2928654987597756
482                       2.285534772161504
483                       2.278226093196671
484                       2.2709392613443344
485                       2.263674076206364
486                       2.2564303375791184
487                       2.2492078455417492
488                       2.2420064005321563
489                       2.234825803421762
490                       2.2276658555987856
491                       2.220526359036771
492                       2.213407116370961
493                       2.2063079309664433
494                       2.1992286069941533
495                       2.1921689494930163
496                       2.1851287644424944
497                       2.1781078588201286
498                       2.171106040670535
499                       2.164123119165547
500                       2.1571589046573187
501                       2.150213208746503
502                       2.14328584432808
503                       2.1363766256500667
504                       2.1294853683630994
505                       2.1226118895707753
506                       2.1157560078750675
507                       2.1089175434303393
508                       2.1020963179723617
509                       2.095292154874578
510                       2.088504879180986
511                       2.0817343176435616
512                       2.074980298762348
513                       2.0682426528153472
514                       2.0615212118927086
515                       2.0548158099262435
516                       2.048126282719669
517                       2.0414524679740658
518                       2.0347942053091197
519                       2.0281513362940062
520                       2.02152370446098
521                       2.0149111553285053
522                       2.0083135364175604
523                       2.0017306972688886
524                       1.9951624894559978
525                       1.9886087665993102
526                       1.9820693843756725
527                       1.9755442005278858
528                       1.9690330748755096
529                       1.962535869318414
530                       1.9560524478388661
531                       1.9495826765151723
532                       1.943126423513338
533                       1.9366835590907772
534                       1.9302539556023255
535                       1.9238374874889026
536                       1.9174340312800784
537                       1.9110434655896988
538                       1.904665671107005
539                       1.8983005305942222
540                       1.8919479288777146
541                       1.8856077528394704
542                       1.8792798914034508
543                       1.8729642355312552
544                       1.8666606782074693
545                       1.860369114428133
546                       1.8540894411829094
547                       1.847821557449449
548                       1.8415653641701626
549                       1.8353207642419345
550                       1.8290876624968946
551                       1.822865965685079
552                       1.8166555824596369
553                       1.8104564233559006
554                       1.8042684007702616
555                       1.798091428947699
556                       1.791925423954011
557                       1.785770303658822
558                       1.7796259877167155
559                       1.7734923975395473
560                       1.7673694562817248
561                       1.7612570888133294
562                       1.7551552216977007
563                       1.7490637831725369
564                       1.742982703121022
565                       1.7369119130535797
566                       1.7308513460805228
567                       1.7248009368900103
568                       1.7187606217241553
569                       1.7127303383536578
570                       1.7067100260548658
571                       1.700699625582751
572                       1.6946990791504288
573                       1.688708330400803
574                       1.6827273243838896
575                       1.6767560075296395
576                       1.6707943276272001
577                       1.6648422337970517
578                       1.6588996764671233
579                       1.6529666073489697
580                       1.647042979409846
581                       1.64112874685394
582                       1.6352238650910236
583                       1.6293282907181312
584                       1.6234419814916121
585                       1.6175648963029898
586                       1.6116969951577793
587                       1.6058382391480872
588                       1.599988590431381
589                       1.5941480122063123
590                       1.588316468687319
591                       1.5824939250845358
592                       1.5766803475785622
593                       1.5708757032998806
594                       1.565079960302117
595                       1.5592930875459914
596                       1.5535150548701184
597                       1.547745832974721
598                       1.541985393397223
599                       1.5362337084908033
600                       1.5304907514051946
601                       1.52475649606328
602                       1.5190309171414798
603                       1.5133139900519585
604                       1.5076056909152782
605                       1.5019059965514543
606                       1.496214884449627
607                       1.4905323327559927
608                       1.4848583202511814
609                       1.479192826333953
610                       1.4735358310001376
611                       1.467887314828204
612                       1.4622472589572615
613                       1.456615645071919
614                       1.4509924553857874
615                       1.445377672623073
616                       1.4397712800019187
617                       1.4341732612186668
618                       1.4285836004316883
619                       1.4230022822462813
620                       1.4174292916958608
621                       1.4118646142333344
622                       1.4063082357097147
623                       1.4007601423638187
624                       1.3952203208048932
625                       1.38968875799984
626                       1.384165441262224
627                       1.3786503582334129
628                       1.3731434968756575
629                       1.3676448454504364
630                       1.3621543925185993
631                       1.356672126915074
632                       1.351198037746202
633                       1.3457321143716245
634                       1.340274346398416
635                       1.3348247236645396
636                       1.329383236231067
637                       1.3239498743729496
638                       1.3185246285626175
639                       1.313107489466836
640                       1.307698447932073
641                       1.3022974949766828
642                       1.296904621781706
643                       1.2915198196788658
644                       1.2861430801467313
645                       1.2807743947976538
646                       1.2754137553699774
647                       1.2700611537226683
648                       1.2647165818236827
649                       1.2593800317442818
650                       1.2540514956497901
651                       1.2487309657957868
652                       1.2434184345152213
653                       1.238113894217443
654                       1.2328173373777498
655                       1.2275287565308937
656                       1.222248144268432
657                       1.2169754932263632
658                       1.2117107960872102
659                       1.2064540455647608
660                       1.2012052344079618
661                       1.1959643553879435
662                       1.1907314012974815
663                       1.1855063649442839
664                       1.1802892391471658
665                       1.175080016728745