% Model:              frequency_response_and_eigenfrequencies_undamped.mph
% Version:            COMSOL 5.2.0.220
% Date:               Dec 14 2018, 02:20
% Dimension:          1
% Nodes:              2001
% Expressions:        1
% Description:        Point graph
% x                       Height
0                         6.223181556960533E-5
1                         6.272563155004519E-5
2                         6.428239760274953E-5
3                         6.71616561587348E-5
4                         7.193981641199868E-5
5                         7.989509189605325E-5
6                         9.428859803810016E-5
7                         1.2633499371858238E-4
8                         2.5674508757548686E-4
9                         3.419237102644802E-4
10                        5.47902951979441E-5
11                        9.245884328980553E-6
12                        1.1679726316078346E-5
13                        2.6239239734775933E-5
14                        4.0070035399155166E-5
15                        5.7563758363891925E-5
16                        8.775677520565851E-5
17                        1.734245837456687E-4
18                        0.005427665802754396
19                        1.4175489237714756E-4
20                        6.376618192063277E-5
21                        3.612443370020874E-5
22                        2.1216073651994234E-5
23                        1.1218648954831243E-5
24                        3.322777006176167E-6
25                        3.988854550413056E-6
26                        1.212408618527536E-5
27                        2.3608084802742697E-5
28                        4.69551340642628E-5
29                        1.6641790937629717E-4
30                        1.3292949500897595E-4
31                        4.663965195648335E-5
32                        2.6047790210311448E-5
33                        1.3076512248649095E-5
34                        1.9614921168209015E-5
35                        1.0948829626782172E-5
36                        6.829401067424317E-6
37                        3.603724932926313E-6
38                        6.300859856944994E-7
39                        2.5215880684465956E-6
40                        6.479539666924585E-6
41                        1.2858587651183277E-5
42                        2.936300434188079E-5
43                        0.003032920152821458
44                        3.1350276434793116E-5
45                        1.4411694019580713E-5
46                        8.094172036835735E-6
47                        4.285523485355916E-6
48                        1.225688217642966E-6
49                        2.0632379151478064E-6
50                        7.668320634416744E-6
51                        4.831790233484518E-5
52                        1.504251187497943E-5
53                        5.088526199138484E-6
54                        1.474053743211329E-6
55                        1.0572796777926944E-6
56                        3.6279656707157725E-6
57                        7.497837342437241E-6
58                        1.9941537747097588E-5
59                        3.307040648964227E-5
60                        6.447469214427098E-6
61                        1.7593620375310434E-6
62                        6.594326766688599E-7
63                        2.4324725890823413E-6
64                        4.008157800127652E-6
65                        5.60555276615534E-6
66                        7.409871697854146E-6
67                        9.67679643608688E-6
68                        1.2908224504284814E-5
69                        1.8444444762633964E-5
70                        3.196032364333431E-5
71                        1.7342384347606503E-4
72                        3.3564939858371345E-5
73                        7.686445510319456E-6
74                        6.639540330335311E-6
75                        1.3941213484700964E-4
76                        1.0216587242578094E-5
77                        1.8427250728048236E-5
78                        1.0041520912895875E-5
79                        6.5879228992752055E-6
80                        4.412333140952397E-6
81                        2.79658034253468E-6
82                        1.4704916628537819E-6
83                        2.9803309317081507E-7
84                        8.062140789875531E-7
85                        1.909353353331745E-6
86                        3.078504334532895E-6
87                        4.398391494311128E-6
88                        5.999405078890885E-6
89                        8.11979565333146E-6
90                        1.1280688789356435E-5
91                        1.6938704364690295E-5
92                        3.145872490532131E-5
93                        2.099727184053795E-4
94                        4.1356042412039574E-5
95                        1.5876337292161013E-5
96                        3.2309857388843854E-5
97                        7.752724707864313E-6
98                        3.989797640275593E-6
99                        7.486988806628806E-7
100                       3.8998863397486274E-6
101                       2.1110140935199562E-5
102                       3.1119867908173164E-5
103                       1.1031285017115032E-5
104                       6.776547039872353E-6
105                       4.652685242285772E-6
106                       3.233799043267561E-6
107                       2.1234054101840986E-6
108                       1.1564308233183723E-6
109                       2.3988688876977957E-7
110                       6.978425519485749E-7
111                       1.7334341507603385E-6
112                       2.9765355213963278E-6
113                       4.624101605353469E-6
114                       7.112006522630336E-6
115                       1.1699045052546064E-5
116                       2.4337659169675075E-5
117                       7.312962133140212E-5
118                       3.232637267396131E-5
119                       1.546941212963251E-5
120                       1.0196147258594965E-5
121                       7.538989217650864E-6
122                       5.893693485781003E-6
123                       4.74509595932828E-6
124                       3.875757843034899E-6
125                       3.176799875122209E-6
126                       2.5858710232114687E-6
127                       2.061163486815149E-6
128                       1.5637520277272147E-6
129                       1.0094723765585634E-6
130                       1.642743511067959E-7
131                       9.021288698548375E-7
132                       2.564173247259645E-7
133                       8.670051304762404E-7
134                       1.304694498019443E-7
135                       7.319969395562366E-7
136                       1.261790607383859E-6
137                       1.851591786095971E-6
138                       2.5760230648305944E-6
139                       3.556324273105658E-6
140                       5.098620290500225E-6
141                       7.106900306342882E-6
142                       1.3950674452818636E-5
143                       8.022782629319908E-5
144                       2.183080275009244E-5
145                       9.383133424978255E-6
146                       5.7657431834900104E-6
147                       3.979261906170382E-6
148                       2.8735743646054923E-6
149                       2.092442712802122E-6
150                       1.4882752780375872E-6
151                       9.877421250451285E-7
152                       5.489273011096675E-7
153                       1.4436934182248814E-7
154                       2.4714549870511095E-7
155                       6.459581877721572E-7
156                       1.0774006177005467E-6
157                       1.5830208638043682E-6
158                       2.253346297300405E-6
159                       3.3718349499980717E-6
160                       6.787976269076214E-6
161                       2.9158334671858248E-5
162                       6.573396181062384E-7
163                       1.2829547841926332E-6
164                       2.581418462575905E-6
165                       4.053134895585915E-6
166                       5.422481884072591E-6
167                       1.154186800462811E-5
168                       2.0175678055598613E-5
169                       8.808806996304135E-6
170                       5.293998220561399E-7
171                       6.816876119404057E-6
172                       1.4874834797219653E-4
173                       1.0564300998584499E-5
174                       5.734561057833296E-6
175                       3.836347515046407E-6
176                       2.742899348652591E-6
177                       1.9920690004674137E-6
178                       1.4197637277635834E-6
179                       9.51085130965277E-7
180                       5.457683362683411E-7
181                       1.7921454665238806E-7
182                       1.6551242322118442E-7
183                       5.016791041656123E-7
184                       8.413175499228203E-7
185                       1.1972111313597688E-6
186                       1.5852094505440216E-6
187                       2.027903656909624E-6
188                       2.5618527253393196E-6
189                       3.254377247349792E-6
190                       4.250329986106372E-6
191                       5.94032115492244E-6
192                       9.924614006551075E-6
193                       6.312430009610411E-5
194                       1.8025341831841388E-5
195                       5.015806379563811E-6
196                       1.9896687180819657E-6
197                       3.8319611484179625E-7
198                       8.020602427799738E-7
199                       1.8977414579608786E-6
200                       3.120740703778733E-6
201                       4.772214733880049E-6
202                       7.679239530659913E-6
203                       1.9311574282143363E-5
204                       9.562971086322563E-6
205                       5.905380464457946E-5
206                       1.6119548838544053E-5
207                       6.742557439846557E-6
208                       2.114675316128263E-6
209                       1.4978601266409174E-5
210                       9.825747073256337E-6
211                       5.4642687090230616E-6
212                       3.914593082808048E-6
213                       2.9953211586364002E-6
214                       2.3354986827159483E-6
215                       1.8103431738015234E-6
216                       1.3623420268787144E-6
217                       9.589370524212701E-7
218                       5.781901899127148E-7
219                       2.0238961066755878E-7
220                       1.8604394131424805E-7
221                       6.103514361337032E-7
222                       1.229673969666117E-6
223                       1.6338211235052153E-6
224                       2.3953229452674852E-6
225                       3.4935447644453605E-6
226                       5.3547692284060106E-6
227                       9.542117806287626E-6
228                       3.073951185887694E-5
229                       2.842895543568799E-5
230                       9.740500399911818E-6
231                       5.729994660726081E-6
232                       3.882361144179454E-6
233                       2.7366733495831366E-6
234                       1.866920582244427E-6
235                       1.0537624530422636E-6
236                       6.0673763922718326E-9
237                       2.947645339832936E-6
238                       8.446209198253054E-6
239                       2.4023599660913516E-6
240                       1.1781085693293722E-6
241                       3.5715139960005845E-7
242                       5.165716326097353E-7
243                       1.9038671801917268E-6
244                       6.5589003189958275E-6
245                       3.933801989390137E-6
246                       1.2893958025610999E-5
247                       4.182247801346973E-6
248                       2.6216195023632897E-6
249                       1.8390879422962053E-6
250                       1.3074585248522277E-6
251                       8.720404833471849E-7
252                       4.114569730095596E-7
253                       1.1063243356795787E-7
254                       6.53369942935346E-7
255                       2.320196440998843E-6
256                       4.354375518746179E-7
257                       1.1721892290266673E-7
258                       5.54284549423164E-7
259                       1.0049469637461254E-6
260                       1.5378521875803607E-6
261                       2.24100759567378E-6
262                       3.2882759387834293E-6
263                       5.138923485424496E-6
264                       9.616846848605225E-6
265                       4.030695631512273E-5
266                       2.1080744275192538E-5
267                       8.5839532627473E-6
268                       5.41103757815173E-6
269                       3.912195413265281E-6
270                       2.9985740456277037E-6
271                       2.3369640565621837E-6
272                       1.7595199502915608E-6
273                       1.0427959954260933E-6
274                       2.680421128467194E-6
275                       4.057980801794506E-6
276                       2.1194880190709683E-6
277                       1.628661514645208E-6
278                       1.3390211094910113E-6
279                       1.123683341884691E-6
280                       9.459851856179563E-7
281                       7.904034649511293E-7
282                       6.486229280748573E-7
283                       5.152437872893939E-7
284                       3.859190315977077E-7
285                       2.5584346515750426E-7
286                       1.2370284525827633E-7
287                       3.1385834226215475E-8
288                       1.4762762870271525E-6
289                       4.827908097068072E-7
290                       1.2318240049669892E-6
291                       5.576566564390648E-8
292                       3.0726547200642703E-7
293                       4.936726878063076E-7
294                       6.71983343347973E-7
295                       8.600404578531278E-7
296                       1.069934209064812E-6
297                       1.315256985351505E-6
298                       1.6160834488071453E-6
299                       2.0076244986729234E-6
300                       2.5637639805329948E-6
301                       3.4920093120933046E-6
302                       5.986542668577999E-6
303                       1.854372958498572E-6
304                       5.41735328640327E-6
305                       1.3185604752122931E-5
306                       2.5609619853296158E-5
307                       5.257118446265235E-6
308                       8.65498066618441E-6
309                       4.139234323678426E-6
310                       2.8194577286977606E-6
311                       1.959403749478545E-6
312                       9.103353126490445E-7
313                       4.153711721757889E-6
314                       1.6887188018492834E-6
315                       1.670831980043225E-6
316                       1.2797260987389873E-6
317                       1.0337312815453372E-6
318                       8.430944818702412E-7
319                       6.828937463991969E-7
320                       5.417263430278462E-7
321                       4.1179863027783827E-7
322                       4.4506574362279984E-7
323                       1.9408708938780807E-7
324                       8.43222365053326E-8
325                       2.156627443850495E-8
326                       1.26739668932498E-7
327                       2.3350568737427813E-7
328                       3.4448943524031606E-7
329                       4.6336411288796235E-7
330                       5.962423702425267E-7
331                       7.554080597018192E-7
332                       9.725858790244654E-7
333                       1.3738723818504655E-6
334                       3.9986229502212185E-6
335                       2.9170886935995246E-7
336                       1.1275763766258771E-7
337                       7.310250417173102E-7
338                       1.024215429651364E-6
339                       1.2738355721754091E-6
340                       1.5282354199635418E-6
341                       1.8134128345690618E-6
342                       2.15643468569743E-6
343                       2.598740471137889E-6
344                       3.22048728113858E-6
345                       4.215787586732944E-6
346                       6.248532695138403E-6
347                       1.4461592991750336E-5
348                       1.3604480343252663E-5
349                       1.1676606991424774E-6
350                       3.094973830230782E-6
351                       1.5570227827842934E-5
352                       1.1989761179297222E-5
353                       5.57053749242876E-6
354                       7.555427548833187E-7
355                       2.8076513032792798E-6
356                       1.6044815158184128E-6
357                       8.325558283032759E-7
358                       1.1370289023806803E-7
359                       8.086180571306017E-7
360                       3.6900077713644433E-6
361                       6.057256465793258E-7
362                       3.02191178272546E-6
363                       2.2117154564544976E-5
364                       8.922619015254472E-6
365                       4.174666415302996E-6
366                       2.7741448526353555E-6
367                       2.0533845844530073E-6
368                       1.5871003279507683E-6
369                       1.2431870008472287E-6
370                       9.658756811855988E-7
371                       7.263231127498248E-7
372                       5.066615118410443E-7
373                       2.932567528657481E-7
374                       7.259781106103368E-8
375                       1.732095248131471E-7
376                       4.753314234793391E-7
377                       9.043409087327563E-7
378                       1.6825214390148198E-6
379                       4.152285649142979E-6
380                       1.5219902341000974E-5
381                       2.503599793520804E-6
382                       1.1270250707293052E-6
383                       4.5955389289325886E-7
384                       2.5457872481856975E-7
385                       8.170179413252204E-7
386                       8.754167641528459E-8
387                       4.980811384856754E-7
388                       9.140231916885664E-7
389                       1.4593043129032619E-6
390                       2.378823906172695E-6
391                       4.843879155685116E-6
392                       1.425514962382951E-4
393                       2.520156586904549E-6
394                       6.90352214209348E-6
395                       1.396535069133964E-6
396                       4.1259324643422936E-7
397                       3.0317186191475896E-7
398                       1.1801364933076282E-6
399                       2.0256147596371462E-6
400                       5.933327875247403E-6
401                       5.183782540585412E-6
402                       1.9506623129748632E-6
403                       8.768477604063352E-6
404                       7.5704879364343365E-6
405                       3.537843346838735E-6
406                       2.3563311899119247E-6
407                       1.7243897489014362E-6
408                       1.2978482659008659E-6
409                       9.676526776936135E-7
410                       6.847580031086716E-7
411                       4.1985360697614273E-7
412                       1.4849644116284615E-7
413                       1.5950828812784826E-7
414                       5.584450067013726E-7
415                       1.1861665934255682E-6
416                       2.5957545102492608E-6
417                       1.3130714783466717E-5
418                       5.2993554850297374E-6
419                       2.074287045165037E-6
420                       6.131971800109847E-7
421                       8.454143196960867E-7
422                       3.1332885376337244E-7
423                       2.0443127382584542E-7
424                       1.216843098329822E-6
425                       3.5874173690469264E-6
426                       4.314994385759341E-8
427                       9.257536773847298E-7
428                       2.3147724114973246E-6
429                       7.3165489340730126E-6
430                       1.312357998895661E-5
431                       3.4612147649103815E-6
432                       3.5545877749875813E-6
433                       1.684416306816654E-6
434                       1.0723495303138335E-6
435                       5.948437743132788E-7
436                       8.242974614689688E-8
437                       7.303639132756997E-7
438                       3.895583646871992E-6
439                       4.380873808962268E-6
440                       1.1536761769873078E-6
441                       4.6842803150540664E-7
442                       1.0875897653295231E-6
443                       8.769094587006701E-6
444                       5.070353254587384E-6
445                       2.2131894222022056E-6
446                       1.5590093307144162E-6
447                       1.2028395996559926E-6
448                       9.499313689769068E-7
449                       7.405149301294535E-7
450                       5.452788280005542E-7
451                       3.414520174760759E-7
452                       9.970169856957356E-8
453                       2.386109702820932E-7
454                       8.478148224683433E-7
455                       2.6967976396577018E-6
456                       2.0705384867061393E-5
457                       3.458011980449265E-6
458                       1.847699362564685E-6
459                       1.3465181722521037E-6
460                       1.0680255033710058E-6
461                       8.801515678441522E-7
462                       7.381689318003483E-7
463                       6.224188973071303E-7
464                       5.227430055593767E-7
465                       4.332223690598486E-7
466                       3.5003454029414037E-7
467                       2.7044922285463054E-7
468                       1.9229271834842853E-7
469                       1.1361395538707065E-7
470                       3.242386645223777E-8
471                       5.357697060284452E-8
472                       1.4737733848754482E-7
473                       2.5331232464082897E-7
474                       3.7841085566137835E-7
475                       5.356546710498886E-7
476                       7.537131768859769E-7
477                       1.1176175016400183E-6
478                       2.1196744746627653E-6
479                       2.417876373606399E-6
480                       2.8822401460528386E-6
481                       8.715702741821122E-7
482                       3.783759119467198E-7
483                       1.256015292209817E-6
484                       3.70344523319473E-6
485                       2.500121988970241E-7
486                       6.142856666012667E-6
487                       7.079677945056467E-6
488                       3.7680797314586275E-6
489                       1.9466578770522733E-6
490                       1.198848550989482E-6
491                       6.398066375460843E-7
492                       1.27274474024808E-7
493                       1.593242731091906E-5
494                       2.829038018794618E-7
495                       2.855959512920692E-7
496                       1.1236568955943742E-5
497                       2.7171700865257785E-6
498                       8.419722542891919E-6
499                       1.4763211779391823E-6
500                       1.1461959123665022E-6
501                       9.538173923833125E-7
502                       8.162284016818594E-7
503                       7.080264139129942E-7
504                       6.177723613659288E-7
505                       5.392461817748516E-7
506                       4.685930942795712E-7
507                       4.0312446508930906E-7
508                       3.4069467260056015E-7
509                       2.792660811183435E-7
510                       2.1642912304198116E-7
511                       1.4853837018607786E-7
512                       6.846294884697764E-8
513                       4.25555879766248E-8
514                       2.6320144616890126E-7
515                       2.1847155021349215E-6
516                       6.122039600480969E-7
517                       2.2976049298733654E-7
518                       7.071991258057601E-8
519                       6.258930539979673E-8
520                       2.4582372138845943E-7
521                       8.744746460761785E-7
522                       8.985763479032152E-7
523                       1.9651657473653663E-7
524                       1.6129713499055422E-8
525                       9.628183899514236E-8
526                       1.9130647433412147E-7
527                       2.8557276509781606E-7
528                       3.901165827075569E-7
529                       5.186798048189532E-7
530                       6.976382416509484E-7
531                       9.97959161988571E-7
532                       1.7517883082229364E-6
533                       5.162326338719684E-6
534                       2.5410447144266455E-6
535                       7.730883407306669E-7
536                       3.4755599090442635E-7
537                       7.40572612632846E-8
538                       1.0667138780997788E-7
539                       2.5809259846565457E-7
540                       4.066070075049892E-7
541                       5.789245157013142E-7
542                       8.435544868949037E-7
543                       1.8520057516784205E-6
544                       1.6874143736283155E-7
545                       5.744082743420266E-7
546                       9.35419801908597E-7
547                       1.3493448113548248E-6
548                       2.040658554502579E-6
549                       4.718963549926651E-6
550                       1.8858523681766596E-6
551                       3.284168439063835E-5
552                       7.905522470572761E-8
553                       4.333692987010172E-6
554                       4.211419422338044E-6
555                       1.4080578323959596E-6
556                       6.155421599633004E-7
557                       1.1259860508748642E-7
558                       3.740529824992681E-7
559                       1.0972683111834595E-6
560                       3.424914871947022E-6
561                       6.310291834414711E-6
562                       1.3700382493250632E-6
563                       3.400903187991883E-7
564                       5.530458059315668E-7
565                       2.973531585000214E-6
566                       6.799571659287381E-6
567                       1.9654957824900007E-6
568                       1.0797878176106379E-6
569                       5.493998671830095E-7
570                       2.0505171099134318E-7
571                       6.992244911372051E-6
572                       1.1972643564332244E-6
573                       7.120772547578548E-7
574                       4.3875147088464965E-7
575                       1.721066526946902E-7
576                       3.0903752203651806E-7
577                       1.2020628595701038E-5
578                       1.2176469896137057E-6
579                       6.868216970105823E-7
580                       4.687082080242627E-7
581                       3.808386664670044E-7
582                       2.5894994063315545E-7
583                       2.2750135955355144E-7
584                       1.5006858215226567E-7
585                       8.422054113722055E-8
586                       3.583778887675392E-8
587                       8.949073504661914E-9
588                       6.447653526014973E-8
589                       1.1564302649244895E-7
590                       1.6596699643018663E-7
591                       2.1820363367761967E-7
592                       2.5281792331419967E-7
593                       3.1244577684505417E-7
594                       3.672563452542813E-7
595                       4.1901134135814563E-7
596                       4.802903171209464E-7
597                       5.437002996221545E-7
598                       6.122416853006472E-7
599                       6.875420389121137E-7
600                       7.716234019269993E-7
601                       8.672526240029566E-7
602                       9.784323550717271E-7
603                       1.111309708140307E-6
604                       1.2760840630454938E-6
605                       1.491644096816059E-6
606                       1.79948057342285E-6
607                       2.3225198042402626E-6
608                       3.7780130634978467E-6
609                       4.416812689193087E-6
610                       1.3093316778138654E-6
611                       2.8426551290346874E-6
612                       5.33640616123458E-6
613                       2.1460923049267518E-5
614                       2.799297729259243E-6
615                       1.1163842657296828E-5
616                       4.02510665147601E-6
617                       2.333070783609754E-6
618                       1.0476823731436994E-6
619                       3.5058781887819086E-6
620                       1.5193370084345E-6
621                       8.305012530305667E-7
622                       2.1690378039796E-6
623                       1.033558352082796E-6
624                       7.611858870892496E-7
625                       5.784133236754862E-7
626                       4.2914102989547097E-7